Variables = "x","y", "Velocity_x", "Velocity_y", "Velocity_whole value", "Pressure", "Absolute pressure", "Total pressure"
Zone i=62, j=62
 1.0000000e+000  0.0000000e+000  0.0000000e+000  0.0000000e+000  0.0000000e+000  4.1897601e-001  4.1897601e-001  4.1897601e-001 
 9.8323011e-001 -2.6773806e-003  0.0000000e+000  0.0000000e+000  0.0000000e+000  1.8050617e-001  1.8050617e-001  1.8050617e-001 
 9.4965088e-001 -7.8756558e-003  0.0000000e+000  0.0000000e+000  0.0000000e+000 -2.9675859e-001 -2.9675859e-001 -2.9675859e-001 
 9.1596675e-001 -1.2547650e-002  0.0000000e+000  0.0000000e+000  0.0000000e+000 -7.1310825e-003 -7.1310825e-003 -7.1310825e-003 
 8.8222855e-001 -1.6700745e-002  0.0000000e+000  0.0000000e+000  0.0000000e+000 -9.7142689e-002 -9.7142689e-002 -9.7142689e-002 
 8.4847081e-001 -2.0683091e-002  0.0000000e+000  0.0000000e+000  0.0000000e+000 -3.8977075e-002 -3.8977075e-002 -3.8977075e-002 
 8.1469584e-001 -2.4568455e-002  0.0000000e+000  0.0000000e+000  0.0000000e+000 -3.0819267e-002 -3.0819267e-002 -3.0819267e-002 
 7.8091180e-001 -2.8302455e-002  0.0000000e+000  0.0000000e+000  0.0000000e+000 -8.1943329e-003 -8.1943329e-003 -8.1943329e-003 
 7.4710488e-001 -3.1884864e-002  0.0000000e+000  0.0000000e+000  0.0000000e+000  8.9383321e-003  8.9383321e-003  8.9383321e-003 
 7.1328807e-001 -3.5314325e-002  0.0000000e+000  0.0000000e+000  0.0000000e+000  2.7646162e-002  2.7646162e-002  2.7646162e-002 
 6.7944580e-001 -3.8588271e-002  0.0000000e+000  0.0000000e+000  0.0000000e+000  4.5369416e-002  4.5369416e-002  4.5369416e-002 
 6.4558649e-001 -4.1699290e-002  0.0000000e+000  0.0000000e+000  0.0000000e+000  6.3385397e-002  6.3385397e-002  6.3385397e-002 
 6.1172247e-001 -4.4636074e-002  0.0000000e+000  0.0000000e+000  0.0000000e+000  8.1344731e-002  8.1344731e-002  8.1344731e-002 
 5.7785213e-001 -4.7386542e-002  0.0000000e+000  0.0000000e+000  0.0000000e+000  9.9547394e-002  9.9547394e-002  9.9547394e-002 
 5.4395795e-001 -4.9935754e-002  0.0000000e+000  0.0000000e+000  0.0000000e+000  1.1810253e-001  1.1810253e-001  1.1810253e-001 
 5.1004314e-001 -5.2264623e-002  0.0000000e+000  0.0000000e+000  0.0000000e+000  1.3715874e-001  1.3715874e-001  1.3715874e-001 
 4.7610831e-001 -5.4349955e-002  0.0000000e+000  0.0000000e+000  0.0000000e+000  1.5682356e-001  1.5682356e-001  1.5682356e-001 
 4.4216084e-001 -5.6163080e-002  0.0000000e+000  0.0000000e+000  0.0000000e+000  1.7730619e-001  1.7730619e-001  1.7730619e-001 
 4.0820092e-001 -5.7671115e-002  0.0000000e+000  0.0000000e+000  0.0000000e+000  1.9878873e-001  1.9878873e-001  1.9878873e-001 
 3.7422970e-001 -5.8836430e-002  0.0000000e+000  0.0000000e+000  0.0000000e+000  2.2154281e-001  2.2154281e-001  2.2154281e-001 
 3.4025061e-001 -5.9613071e-002  0.0000000e+000  0.0000000e+000  0.0000000e+000  2.4581054e-001  2.4581054e-001  2.4581054e-001 
 3.0624384e-001 -5.9945442e-002  0.0000000e+000  0.0000000e+000  0.0000000e+000  2.7188960e-001  2.7188960e-001  2.7188960e-001 
 2.7224916e-001 -5.9764314e-002  0.0000000e+000  0.0000000e+000  0.0000000e+000  3.0040878e-001  3.0040878e-001  3.0040878e-001 
 2.3826766e-001 -5.8981277e-002  0.0000000e+000  0.0000000e+000  0.0000000e+000  3.3103162e-001  3.3103162e-001  3.3103162e-001 
 2.0431206e-001 -5.7487838e-002  0.0000000e+000  0.0000000e+000  0.0000000e+000  3.6696810e-001  3.6696810e-001  3.6696810e-001 
 1.7040290e-001 -5.5174999e-002  0.0000000e+000  0.0000000e+000  0.0000000e+000  3.9990249e-001  3.9990249e-001  3.9990249e-001 
 1.3658334e-001 -5.1832937e-002  0.0000000e+000  0.0000000e+000  0.0000000e+000  4.5904705e-001  4.5904705e-001  4.5904705e-001 
 1.0293546e-001 -4.7095686e-002  0.0000000e+000  0.0000000e+000  0.0000000e+000  4.4768700e-001  4.4768700e-001  4.4768700e-001 
 6.9633752e-002 -4.0397547e-002  0.0000000e+000  0.0000000e+000  0.0000000e+000  6.4834332e-001  6.4834332e-001  6.4834332e-001 
 3.7250340e-002 -3.0405145e-002  0.0000000e+000  0.0000000e+000  0.0000000e+000  3.8149929e-001  3.8149929e-001  3.8149929e-001 
 1.0695790e-002 -1.2164770e-002  0.0000000e+000  0.0000000e+000  0.0000000e+000  1.1268871e+000  1.1268871e+000  1.1268871e+000 
 1.0695790e-002  1.2176869e-002  0.0000000e+000  0.0000000e+000  0.0000000e+000 -1.4563755e+000 -1.4563755e+000 -1.4563755e+000 
 3.7250340e-002  3.0405145e-002  0.0000000e+000  0.0000000e+000  0.0000000e+000 -4.0347028e-001 -4.0347028e-001 -4.0347028e-001 
 6.9633752e-002  4.0397547e-002  0.0000000e+000  0.0000000e+000  0.0000000e+000 -4.5275542e-001 -4.5275542e-001 -4.5275542e-001 
 1.0293546e-001  4.7095686e-002  0.0000000e+000  0.0000000e+000  0.0000000e+000 -3.5889640e-001 -3.5889640e-001 -3.5889640e-001 
 1.3658334e-001  5.1832937e-002  0.0000000e+000  0.0000000e+000  0.0000000e+000 -3.4528902e-001 -3.4528902e-001 -3.4528902e-001 
 1.7040290e-001  5.5174999e-002  0.0000000e+000  0.0000000e+000  0.0000000e+000 -3.2051980e-001 -3.2051980e-001 -3.2051980e-001 
 2.0431206e-001  5.7487838e-002  0.0000000e+000  0.0000000e+000  0.0000000e+000 -3.0519420e-001 -3.0519420e-001 -3.0519420e-001 
 2.3826766e-001  5.8981277e-002  0.0000000e+000  0.0000000e+000  0.0000000e+000 -2.9336351e-001 -2.9336351e-001 -2.9336351e-001 
 2.7224916e-001  5.9764314e-002  0.0000000e+000  0.0000000e+000  0.0000000e+000 -2.8387824e-001 -2.8387824e-001 -2.8387824e-001 
 3.0624384e-001  5.9945442e-002  0.0000000e+000  0.0000000e+000  0.0000000e+000 -2.7666384e-001 -2.7666384e-001 -2.7666384e-001 
 3.4025061e-001  5.9613071e-002  0.0000000e+000  0.0000000e+000  0.0000000e+000 -2.7071697e-001 -2.7071697e-001 -2.7071697e-001 
 3.7422970e-001  5.8836430e-002  0.0000000e+000  0.0000000e+000  0.0000000e+000 -2.6596624e-001 -2.6596624e-001 -2.6596624e-001 
 4.0820092e-001  5.7671115e-002  0.0000000e+000  0.0000000e+000  0.0000000e+000 -2.6204404e-001 -2.6204404e-001 -2.6204404e-001 
 4.4216084e-001  5.6163080e-002  0.0000000e+000  0.0000000e+000  0.0000000e+000 -2.5882939e-001 -2.5882939e-001 -2.5882939e-001 
 4.7610831e-001  5.4349955e-002  0.0000000e+000  0.0000000e+000  0.0000000e+000 -2.5615788e-001 -2.5615788e-001 -2.5615788e-001 
 5.1004314e-001  5.2264623e-002  0.0000000e+000  0.0000000e+000  0.0000000e+000 -2.5391540e-001 -2.5391540e-001 -2.5391540e-001 
 5.4395795e-001  4.9935754e-002  0.0000000e+000  0.0000000e+000  0.0000000e+000 -2.5199059e-001 -2.5199059e-001 -2.5199059e-001 
 5.7785213e-001  4.7386542e-002  0.0000000e+000  0.0000000e+000  0.0000000e+000 -2.5026709e-001 -2.5026709e-001 -2.5026709e-001 
 6.1172247e-001  4.4636074e-002  0.0000000e+000  0.0000000e+000  0.0000000e+000 -2.4863052e-001 -2.4863052e-001 -2.4863052e-001 
 6.4558649e-001  4.1699290e-002  0.0000000e+000  0.0000000e+000  0.0000000e+000 -2.4703485e-001 -2.4703485e-001 -2.4703485e-001 
 6.7944580e-001  3.8588271e-002  0.0000000e+000  0.0000000e+000  0.0000000e+000 -2.4530497e-001 -2.4530497e-001 -2.4530497e-001 
 7.1328807e-001  3.5314325e-002  0.0000000e+000  0.0000000e+000  0.0000000e+000 -2.4363817e-001 -2.4363817e-001 -2.4363817e-001 
 7.4710488e-001  3.1884864e-002  0.0000000e+000  0.0000000e+000  0.0000000e+000 -2.4129917e-001 -2.4129917e-001 -2.4129917e-001 
 7.8091180e-001  2.8302455e-002  0.0000000e+000  0.0000000e+000  0.0000000e+000 -2.4033670e-001 -2.4033670e-001 -2.4033670e-001 
 8.1469584e-001  2.4568455e-002  0.0000000e+000  0.0000000e+000  0.0000000e+000 -2.3429385e-001 -2.3429385e-001 -2.3429385e-001 
 8.4847081e-001  2.0683091e-002  0.0000000e+000  0.0000000e+000  0.0000000e+000 -2.4508385e-001 -2.4508385e-001 -2.4508385e-001 
 8.8224447e-001  1.6698830e-002  0.0000000e+000  0.0000000e+000  0.0000000e+000 -2.0174922e-001 -2.0174922e-001 -2.0174922e-001 
 9.1598266e-001  1.2545735e-002  0.0000000e+000  0.0000000e+000  0.0000000e+000 -3.1771404e-001 -3.1771404e-001 -3.1771404e-001 
 9.4965088e-001  7.8756558e-003  0.0000000e+000  0.0000000e+000  0.0000000e+000 -1.8899154e-002 -1.8899154e-002 -1.8899154e-002 
 9.8323011e-001  2.6773806e-003  0.0000000e+000  0.0000000e+000  0.0000000e+000 -5.8155060e-001 -5.8155060e-001 -5.8155060e-001 
 1.0000000e+000  0.0000000e+000  0.0000000e+000  0.0000000e+000  0.0000000e+000 -8.6268467e-001 -8.6268467e-001 -8.6268467e-001 
 1.0014830e+000  0.0000000e+000  6.4863944e-003  3.4977388e-004  6.4958180e-003 -2.0326687e-001 -2.0326687e-001 -2.0324577e-001 
 9.8471147e-001 -2.7630636e-003  8.6511979e-003  1.3887626e-003  8.7619564e-003  1.7136261e-001  1.7136261e-001  1.7140099e-001 
 9.5111966e-001 -8.1317862e-003  5.8209272e-003  8.6731219e-004  5.8851866e-003 -2.9118460e-001 -2.9118460e-001 -2.9116729e-001 
 9.1740531e-001 -1.2971495e-002  9.6519329e-003  1.2639834e-003  9.7343447e-003 -1.1995927e-002 -1.1995927e-002 -1.1948548e-002 
 8.8361949e-001 -1.7287727e-002  9.5614558e-003  1.0583510e-003  9.6198516e-003 -9.6849449e-002 -9.6849449e-002 -9.6803181e-002 
 8.4979725e-001 -2.1426775e-002  1.2293948e-002  1.4728317e-003  1.2381857e-002 -4.0149033e-002 -4.0149033e-002 -4.0072378e-002 
 8.1594169e-001 -2.5460672e-002  1.3330770e-002  1.4969008e-003  1.3414550e-002 -3.1425111e-002 -3.1425111e-002 -3.1335138e-002 
 7.8206205e-001 -2.9333407e-002  1.4863724e-002  1.6138611e-003  1.4951081e-002 -8.8389600e-003 -8.8389600e-003 -8.7271929e-003 
 7.4814534e-001 -3.3043232e-002  1.6009927e-002  1.6615166e-003  1.6095912e-002  8.4108477e-003  8.4108477e-003  8.5403873e-003 
 7.1420610e-001 -3.6587387e-002  1.7110022e-002  1.6979363e-003  1.7194064e-002  2.7190870e-002  2.7190870e-002  2.7338687e-002 
 6.8023008e-001 -3.9962038e-002  1.8021064e-002  1.7021677e-003  1.8101273e-002  4.5001741e-002  4.5001741e-002  4.5165569e-002 
 6.4622724e-001 -4.3158665e-002  1.8807214e-002  1.6819801e-003  1.8882276e-002  6.3100889e-002  6.3100889e-002  6.3279159e-002 
 6.1221141e-001 -4.6165027e-002  1.9432755e-002  1.6341979e-003  1.9501349e-002  8.1146911e-002  8.1146911e-002  8.1337065e-002 
 5.7818282e-001 -4.8968270e-002  1.9912364e-002  1.5597733e-003  1.9973360e-002  9.9438399e-002  9.9438399e-002  9.9637866e-002 
 5.4412580e-001 -5.1552881e-002  2.0237202e-002  1.4580291e-003  2.0289658e-002  1.1808527e-001  1.1808527e-001  1.1829111e-001 
 5.1004529e-001 -5.3899370e-002  2.0404452e-002  1.3299948e-003  2.0447752e-002  1.3723798e-001  1.3723798e-001  1.3744703e-001 
 4.7594371e-001 -5.5984356e-002  2.0421050e-002  1.1752604e-003  2.0454841e-002  1.5700434e-001  1.5700434e-001  1.5721354e-001 
 4.4183055e-001 -5.7779178e-002  2.0279115e-002  9.9414366e-004  2.0303469e-002  1.7759401e-001  1.7759401e-001  1.7780012e-001 
 4.0770769e-001 -5.9251152e-002  1.9978393e-002  7.8882428e-004  1.9993959e-002  1.9919142e-001  1.9919142e-001  1.9939131e-001 
 3.7357831e-001 -6.0363047e-002  1.9517787e-002  5.6093407e-004  1.9525846e-002  2.2206944e-001  2.2206944e-001  2.2226007e-001 
 3.3944744e-001 -6.1069496e-002  1.8892782e-002  3.1239676e-004  1.8895365e-002  2.4647175e-001  2.4647175e-001  2.4665026e-001 
 3.0529714e-001 -6.1315686e-002  1.8111520e-002  4.5272802e-005  1.8111575e-002  2.7270031e-001  2.7270031e-001  2.7286431e-001 
 2.7116868e-001 -6.1033346e-002  1.7149249e-002 -2.3535147e-004  1.7150864e-002  3.0137846e-001  3.0137846e-001  3.0152553e-001 
 2.3706478e-001 -6.0135178e-002  1.6053285e-002 -5.3094741e-004  1.6062064e-002  3.3219531e-001  3.3219531e-001  3.3232430e-001 
 2.0299950e-001 -5.8513977e-002  1.4635119e-002 -8.1025419e-004  1.4657531e-002  3.6825883e-001  3.6825883e-001  3.6836624e-001 
 1.6899467e-001 -5.6062173e-002  1.3331288e-002 -1.1024936e-003  1.3376798e-002  4.0161538e-001  4.0161538e-001  4.0170485e-001 
 1.3509457e-001 -5.2571487e-002  1.0888617e-002 -1.2225327e-003  1.0957032e-002  4.6011847e-001  4.6011847e-001  4.6017849e-001 
 1.0138217e-001 -4.7677658e-002  1.0589262e-002 -1.7926762e-003  1.0739934e-002  4.5184779e-001  4.5184779e-001  4.5190546e-001 
 6.8032734e-002 -4.0816806e-002  4.1784295e-003 -9.6036022e-004  4.2873728e-003  6.4628118e-001  6.4628118e-001  6.4629036e-001 
 3.5618849e-002 -3.0657567e-002  4.1063195e-003 -1.9644811e-003  4.5520375e-003  3.8422197e-001  3.8422197e-001  3.8423234e-001 
 9.0506719e-003 -1.2248890e-002 -6.3951761e-002  7.6088041e-002  9.9394254e-002  1.0847268e+000  1.0847268e+000  1.0896664e+000 
 9.0506719e-003  1.2260989e-002  5.5020642e-002  6.5770514e-002  8.5749820e-002 -1.4189051e+000 -1.4189051e+000 -1.4152286e+000 
 3.5618849e-002  3.0657567e-002  2.8333745e-003  6.9025357e-004  2.9162411e-003 -4.1926724e-001 -4.1926724e-001 -4.1926298e-001 
 6.8032734e-002  4.0816806e-002  7.4593944e-004  1.3862213e-004  7.5871055e-004 -4.5348710e-001 -4.5348710e-001 -4.5348680e-001 
 1.0138217e-001  4.7677658e-002 -1.5632587e-003 -2.6655413e-004  1.5858212e-003 -3.6116502e-001 -3.6116502e-001 -3.6116377e-001 
 1.3509457e-001  5.2571487e-002 -1.6179123e-003 -1.7562858e-004  1.6274168e-003 -3.4610444e-001 -3.4610444e-001 -3.4610313e-001 
 1.6899467e-001  5.6062173e-002 -2.2267627e-003 -1.8579184e-004  2.2345001e-003 -3.2127526e-001 -3.2127526e-001 -3.2127276e-001 
 2.0299950e-001  5.8513977e-002 -2.4455115e-003 -1.3733160e-004  2.4493646e-003 -3.0570826e-001 -3.0570826e-001 -3.0570525e-001 
 2.3706478e-001  6.0135178e-002 -2.6209196e-003 -8.7714237e-005  2.6223869e-003 -2.9374820e-001 -2.9374820e-001 -2.9374477e-001 
 2.7116868e-001  6.1033346e-002 -2.7072018e-003 -3.9141170e-005  2.7074846e-003 -2.8416818e-001 -2.8416818e-001 -2.8416452e-001 
 3.0529714e-001  6.1315686e-002 -2.7269262e-003  5.2528162e-006  2.7269314e-003 -2.7688023e-001 -2.7688023e-001 -2.7687651e-001 
 3.3944744e-001  6.1069496e-002 -2.7075885e-003  4.2918629e-005  2.7079287e-003 -2.7088103e-001 -2.7088103e-001 -2.7087736e-001 
 3.7357831e-001  6.0363047e-002 -2.6475380e-003  7.4917043e-005  2.6485978e-003 -2.6609153e-001 -2.6609153e-001 -2.6608801e-001 
 4.0770769e-001  5.9251152e-002 -2.5636591e-003  9.9921570e-005  2.5656056e-003 -2.6213676e-001 -2.6213676e-001 -2.6213348e-001 
 4.4183055e-001  5.7779178e-002 -2.4610481e-003  1.1907196e-004  2.4639268e-003 -2.5889444e-001 -2.5889444e-001 -2.5889140e-001 
 4.7594371e-001  5.5984356e-002 -2.3523001e-003  1.3409676e-004  2.3561192e-003 -2.5620174e-001 -2.5620174e-001 -2.5619897e-001 
 5.1004529e-001  5.3899370e-002 -2.2463535e-003  1.4545914e-004  2.2510581e-003 -2.5394133e-001 -2.5394133e-001 -2.5393879e-001 
 5.4412580e-001  5.1552881e-002 -2.1507321e-003  1.5437620e-004  2.1562653e-003 -2.5200105e-001 -2.5200105e-001 -2.5199872e-001 
 5.7818282e-001  4.8968270e-002 -2.0682854e-003  1.6169455e-004  2.0745962e-003 -2.5026414e-001 -2.5026414e-001 -2.5026199e-001 
 6.1221141e-001  4.6165030e-002 -1.9934108e-003  1.6754384e-004  2.0004392e-003 -2.4861605e-001 -2.4861605e-001 -2.4861406e-001 
 6.4622724e-001  4.3158669e-002 -1.9215746e-003  1.7196152e-004  1.9292537e-003 -2.4700992e-001 -2.4700992e-001 -2.4700806e-001 
 6.8023008e-001  3.9962038e-002 -1.8338118e-003  1.7323063e-004  1.8419757e-003 -2.4527153e-001 -2.4527153e-001 -2.4526983e-001 
 7.1420610e-001  3.6587387e-002 -1.7357575e-003  1.7259057e-004  1.7443169e-003 -2.4359500e-001 -2.4359500e-001 -2.4359348e-001 
 7.4814534e-001  3.3043236e-002 -1.5623651e-003  1.6113785e-004  1.5706528e-003 -2.4125913e-001 -2.4125913e-001 -2.4125789e-001 
 7.8206205e-001  2.9333411e-002 -1.4396053e-003  1.5896017e-004  1.4483548e-003 -2.4026011e-001 -2.4026011e-001 -2.4025907e-001 
 8.1594169e-001  2.5460672e-002 -9.7268762e-004  9.8006414e-005  9.7761268e-004 -2.3436023e-001 -2.3436023e-001 -2.3435976e-001 
 8.4979725e-001  2.1426775e-002 -1.1904784e-003  1.4495336e-004  1.1992708e-003 -2.4452002e-001 -2.4452002e-001 -2.4451931e-001 
 8.8363540e-001  1.7285815e-002  2.8025577e-004 -3.5399284e-005  2.8248256e-004 -2.0328049e-001 -2.0328049e-001 -2.0328045e-001 
 9.1742122e-001  1.2969585e-002 -1.2891543e-003  1.6762414e-004  1.3000064e-003 -3.1384099e-001 -3.1384099e-001 -3.1384015e-001 
 9.5111966e-001  8.1317890e-003  1.2433827e-003 -1.8853748e-004  1.2575957e-003 -2.6007745e-002 -2.6007745e-002 -2.6006954e-002 
 9.8471147e-001  2.7630641e-003  4.3215905e-003 -6.8921485e-004  4.3762042e-003 -5.7789636e-001 -5.7789636e-001 -5.7788676e-001 
 1.0014830e+000  0.0000000e+000  6.4863944e-003  3.4977388e-004  6.4958180e-003 -2.0326687e-001 -2.0326687e-001 -2.0324577e-001 
 1.0045969e+000  0.0000000e+000  1.9869072e-002  1.1515649e-003  1.9902416e-002 -2.0902994e-001 -2.0902994e-001 -2.0883189e-001 
 9.8782182e-001 -2.9429735e-003  2.6203705e-002  4.3514213e-003  2.6562549e-002  1.5216362e-001  1.5216362e-001  1.5251641e-001 
 9.5420384e-001 -8.6695887e-003  1.8457886e-002  2.5964151e-003  1.8639605e-002 -2.7948064e-001 -2.7948064e-001 -2.7930692e-001 
 9.2042589e-001 -1.3861449e-002  2.9416749e-002  4.0378980e-003  2.9692588e-002 -2.2210687e-002 -2.2210687e-002 -2.1769863e-002 
 8.8654006e-001 -1.8520219e-002  2.9724943e-002  3.3931341e-003  2.9917981e-002 -9.6233740e-002 -9.6233740e-002 -9.5786199e-002 
 8.5258240e-001 -2.2988295e-002  3.7616357e-002  4.5019877e-003  3.7884802e-002 -4.2609815e-002 -4.2609815e-002 -4.1892186e-002 
 8.1855774e-001 -2.7334064e-002  4.1032583e-002  4.6649938e-003  4.1296914e-002 -3.2697201e-002 -3.2697201e-002 -3.1844482e-002 
 7.8447711e-001 -3.1498108e-002  4.5609657e-002  4.9855718e-003  4.5881335e-002 -1.0192477e-002 -1.0192477e-002 -9.1399290e-003 
 7.5033009e-001 -3.5475470e-002  4.9134005e-002  5.1388475e-003  4.9402006e-002  7.3032835e-003  7.3032835e-003  8.5235629e-003 
 7.1613377e-001 -3.9260447e-002  5.2461706e-002  5.2384241e-003  5.2722592e-002  2.6234888e-002  2.6234888e-002  2.7624723e-002 
 6.8187690e-001 -4.2846549e-002  5.5229507e-002  5.2444660e-003  5.5477951e-002  4.4229731e-002  4.4229731e-002  4.5768633e-002 
 6.4757252e-001 -4.6222940e-002  5.7603732e-002  5.1715267e-003  5.7835411e-002  6.2503502e-002  6.2503502e-002  6.4175971e-002 
 6.1323798e-001 -4.9375389e-002  5.9491094e-002  5.0146272e-003  5.9702069e-002  8.0731541e-002  8.0731541e-002  8.2513712e-002 
 5.7887721e-001 -5.2289445e-002  6.0930353e-002  4.7747898e-003  6.1117154e-002  9.9209547e-002  9.9209547e-002  1.0107720e-001 
 5.4447806e-001 -5.4948371e-002  6.1897818e-002  4.4515659e-003  6.2057685e-002  1.1804904e-001  1.1804904e-001  1.1997462e-001 
 5.1004964e-001 -5.7331860e-002  6.2385432e-002  4.0473542e-003  6.2516585e-002  1.3740437e-001  1.3740437e-001  1.3935854e-001 
 4.7559816e-001 -5.9416123e-002  6.2415011e-002  3.5617868e-003  6.2516555e-002  1.5738392e-001  1.5738392e-001  1.5933807e-001 
 4.4113699e-001 -6.1172511e-002  6.1960667e-002  2.9965723e-003  6.2033087e-002  1.7819834e-001  1.7819834e-001  1.8012239e-001 
 4.0667212e-001 -6.2568769e-002  6.1022021e-002  2.3583595e-003  6.1067577e-002  2.0003696e-001  2.0003696e-001  2.0190158e-001 
 3.7221053e-001 -6.3568495e-002  5.9595104e-002  1.6524887e-003  5.9618011e-002  2.2317524e-001  2.2317524e-001  2.2495240e-001 
 3.3776104e-001 -6.4127572e-002  5.7666849e-002  8.8499230e-004  5.7673641e-002  2.4786012e-001  2.4786012e-001  2.4952324e-001 
 3.0330926e-001 -6.4192809e-002  5.5255346e-002  6.3644104e-005  5.5255383e-002  2.7440256e-001  2.7440256e-001  2.7592912e-001 
 2.6889998e-001 -6.3697949e-002  5.2294277e-002 -7.9808856e-004  5.2300368e-002  3.0341452e-001  3.0341452e-001  3.0478218e-001 
 2.3453908e-001 -6.2558040e-002  4.8888121e-002 -1.6920839e-003  4.8917394e-002  3.3463874e-001  3.3463874e-001  3.3583519e-001 
 2.0024353e-001 -6.0668580e-002  4.4560291e-002 -2.5483188e-003  4.4633098e-002  3.7096903e-001  3.7096903e-001  3.7196508e-001 
 1.6603783e-001 -5.7924978e-002  4.0354345e-002 -3.3733833e-003  4.0495098e-002  4.0521196e-001  4.0521196e-001  4.0603188e-001 
 1.3196860e-001 -5.4122232e-002  3.3188678e-002 -3.8511660e-003  3.3411372e-002  4.6236813e-001  4.6236813e-001  4.6292630e-001 
 9.8120734e-002 -4.8899639e-002  3.1163188e-002 -5.3167860e-003  3.1613484e-002  4.6058419e-001  4.6058419e-001  4.6108389e-001 
 6.4671069e-002 -4.1697130e-002  1.1959723e-002 -2.3916222e-003  1.2196509e-002  6.4195126e-001  6.4195126e-001  6.4202565e-001 
 3.2193195e-002 -3.1187579e-002  4.6884622e-003  5.3355917e-003  7.1028317e-003  3.8993880e-001  3.8993880e-001  3.8996401e-001 
 5.5964002e-003 -1.2425520e-002 -1.7178380e-001  2.1678628e-001  2.7659711e-001  9.9620247e-001  9.9620247e-001  1.0344554e+000 
 5.5964002e-003  1.2437615e-002  1.4735773e-001  1.8971792e-001  2.4022321e-001 -1.3402283e+000 -1.3402283e+000 -1.3113748e+000 
 3.2193191e-002  3.1187577e-002  1.8118616e-002  1.2795666e-002  2.2181373e-002 -4.5243630e-001 -4.5243630e-001 -4.5219028e-001 
 6.4671069e-002  4.1697126e-002  3.5495951e-003  1.2265837e-003  3.7555471e-003 -4.5502341e-001 -4.5502341e-001 -4.5501634e-001 
 9.8120734e-002  4.8899636e-002 -3.9592646e-003 -6.1605789e-004  4.0069069e-003 -3.6592844e-001 -3.6592844e-001 -3.6592042e-001 
 1.3196860e-001  5.4122232e-002 -4.6577090e-003 -5.0875591e-004  4.6854122e-003 -3.4781656e-001 -3.4781656e-001 -3.4780559e-001 
 1.6603783e-001  5.7924978e-002 -6.5038921e-003 -5.3421856e-004  6.5257950e-003 -3.2286152e-001 -3.2286152e-001 -3.2284024e-001 
 2.0024353e-001  6.0668580e-002 -7.2891596e-003 -4.2342255e-004  7.3014474e-003 -3.0678761e-001 -3.0678761e-001 -3.0676097e-001 
 2.3453908e-001  6.2558040e-002 -7.8686522e-003 -2.8286618e-004  7.8737345e-003 -2.9455593e-001 -2.9455593e-001 -2.9452494e-001 
 2.6889998e-001  6.3697949e-002 -8.1727384e-003 -1.4361493e-004  8.1740003e-003 -2.8477702e-001 -2.8477702e-001 -2.8474361e-001 
 3.0330926e-001  6.4192809e-002 -8.2632229e-003 -1.2520683e-005  8.2632322e-003 -2.7733457e-001 -2.7733457e-001 -2.7730042e-001 
 3.3776104e-001  6.4127572e-002 -8.2246903e-003  1.0068384e-004  8.2253069e-003 -2.7122551e-001 -2.7122551e-001 -2.7119169e-001 
 3.7221053e-001  6.3568495e-002 -8.0589857e-003  1.9698104e-004  8.0613922e-003 -2.6635462e-001 -2.6635462e-001 -2.6632214e-001 
 4.0667212e-001  6.2568769e-002 -7.8157159e-003  2.7508725e-004  7.8205550e-003 -2.6233146e-001 -2.6233146e-001 -2.6230088e-001 
 4.4113699e-001  6.1172511e-002 -7.5131780e-003  3.3723254e-004  7.5207427e-003 -2.5903106e-001 -2.5903106e-001 -2.5900277e-001 
 4.7559816e-001  5.9416123e-002 -7.1894294e-003  3.8758980e-004  7.1998695e-003 -2.5629383e-001 -2.5629383e-001 -2.5626791e-001 
 5.1004964e-001  5.7331860e-002 -6.8726181e-003  4.2798495e-004  6.8859314e-003 -2.5399578e-001 -2.5399578e-001 -2.5397205e-001 
 5.4447806e-001  5.4948371e-002 -6.5857871e-003  4.6154083e-004  6.6019399e-003 -2.5202301e-001 -2.5202301e-001 -2.5200123e-001 
 5.7887721e-001  5.2289445e-002 -6.3374434e-003  4.8970111e-004  6.3563352e-003 -2.5025797e-001 -2.5025797e-001 -2.5023776e-001 
 6.1323798e-001  4.9375392e-002 -6.1112433e-003  5.1213487e-004  6.1326646e-003 -2.4858569e-001 -2.4858569e-001 -2.4856688e-001 
 6.4757252e-001  4.6222944e-002 -5.8914884e-003  5.2794925e-004  5.9150965e-003 -2.4695757e-001 -2.4695757e-001 -2.4694008e-001 
 6.8187690e-001  4.2846549e-002 -5.6232181e-003  5.3270540e-004  5.6483941e-003 -2.4520132e-001 -2.4520132e-001 -2.4518536e-001 
 7.1613377e-001  3.9260451e-002 -5.3132954e-003  5.2645837e-004  5.3393133e-003 -2.4350436e-001 -2.4350436e-001 -2.4349010e-001 
 7.5033009e-001  3.5475478e-002 -4.7888821e-003  4.9190799e-004  4.8140800e-003 -2.4117507e-001 -2.4117507e-001 -2.4116348e-001 
 7.8447711e-001  3.1498116e-002 -4.3583945e-003  4.6339037e-004  4.3829596e-003 -2.4009930e-001 -2.4009930e-001 -2.4008968e-001 
 8.1855774e-001  2.7334070e-002 -3.0292575e-003  3.0899365e-004  3.0449759e-003 -2.3449962e-001 -2.3449962e-001 -2.3449498e-001 
 8.5258240e-001  2.2988297e-002 -3.4084478e-003  3.9285186e-004  3.4310129e-003 -2.4333613e-001 -2.4333613e-001 -2.4333024e-001 
 8.8655597e-001  1.8518310e-002  6.1412796e-004 -1.0666346e-004  6.2332192e-004 -2.0649573e-001 -2.0649573e-001 -2.0649554e-001 
 9.2044187e-001  1.3859545e-002 -3.5021475e-003  4.6138596e-004  3.5324092e-003 -3.0570856e-001 -3.0570856e-001 -3.0570233e-001 
 9.5420384e-001  8.6695952e-003  4.4313297e-003 -9.2962070e-004  4.5277895e-003 -4.0933959e-002 -4.0933959e-002 -4.0923707e-002 
 9.8782182e-001  2.9429756e-003  1.3534440e-002 -2.0482915e-003  1.3688556e-002 -5.7022351e-001 -5.7022351e-001 -5.7012981e-001 
 1.0045969e+000  0.0000000e+000  1.9869072e-002  1.1515649e-003  1.9902416e-002 -2.0902994e-001 -2.0902994e-001 -2.0883189e-001 
 1.0080225e+000  0.0000000e+000  3.4484453e-002  2.1737784e-003  3.4552898e-002 -2.1406743e-001 -2.1406743e-001 -2.1347047e-001 
 9.9124330e-001 -3.1408833e-003  4.5016456e-002  7.7652382e-003  4.5681290e-002  1.3312320e-001  1.3312320e-001  1.3416660e-001 
 9.5759666e-001 -9.2612002e-003  3.3045568e-002  4.5118891e-003  3.3352163e-002 -2.7152631e-001 -2.7152631e-001 -2.7097014e-001 
 9.2374879e-001 -1.4840447e-002  5.0697546e-002  7.2498382e-003  5.1213294e-002 -3.0977083e-002 -3.0977083e-002 -2.9665682e-002 
 8.8975281e-001 -1.9876020e-002  5.2112091e-002  6.0984986e-003  5.2467722e-002 -9.5529795e-002 -9.5529795e-002 -9.4153367e-002 
 8.5564619e-001 -2.4706040e-002  6.4914301e-002  7.7907667e-003  6.5380141e-002 -4.5268167e-002 -4.5268167e-002 -4.3130886e-002 
 8.2143545e-001 -2.9394884e-002  7.1122743e-002  8.1817126e-003  7.1591794e-002 -3.4066923e-002 -3.4066923e-002 -3.1504229e-002 
 7.8713381e-001 -3.3879381e-002  7.8795306e-002  8.6820628e-003  7.9272181e-002 -1.1656052e-002 -1.1656052e-002 -8.5140122e-003 
 7.5273347e-001 -3.8151048e-002  8.4843218e-002  8.9478008e-003  8.5313745e-002  6.1127143e-003  6.1127143e-003  9.7519318e-003 
 7.1825433e-001 -4.2200938e-002  9.0473086e-002  9.0966532e-003  9.0929247e-002  2.5204675e-002  2.5204675e-002  2.9338740e-002 
 6.8368846e-001 -4.6019651e-002  9.5168732e-002  9.0904431e-003  9.5601901e-002  4.3398853e-002  4.3398853e-002  4.7968715e-002 
 6.4905244e-001 -4.9593788e-002  9.9172682e-002  8.9426516e-003  9.9575058e-002  6.1859027e-002  6.1859027e-002  6.6816621e-002 
 6.1436731e-001 -5.2906945e-002  1.0235064e-001  8.6513823e-003  1.0271563e-001  8.0282241e-002  8.0282241e-002  8.5557491e-002 
 5.7964098e-001 -5.5942897e-002  1.0475922e-001  8.2157040e-003  1.0508088e-001  9.8959312e-002  9.8959312e-002  1.0448030e-001 
 5.4486561e-001 -5.8683570e-002  1.0636376e-001  7.6374756e-003  1.0663761e-001  1.1800469e-001  1.1800469e-001  1.2369049e-001 
 5.1005441e-001 -6.1107762e-002  1.0715264e-001  6.9196080e-003  1.0737583e-001  1.3757640e-001  1.3757640e-001  1.4334118e-001 
 4.7521797e-001 -6.3191228e-002  1.0716382e-001  6.0629556e-003  1.0733519e-001  1.5778366e-001  1.5778366e-001  1.6354407e-001 
 4.4037408e-001 -6.4905345e-002  1.0634935e-001  5.0717983e-003  1.0647022e-001  1.7883846e-001  1.7883846e-001  1.8450642e-001 
 4.0553299e-001 -6.6218302e-002  1.0470923e-001  3.9572790e-003  1.0478398e-001  2.0093580e-001  2.0093580e-001  2.0642564e-001 
 3.7070590e-001 -6.7094639e-002  1.0223495e-001  2.7290687e-003  1.0227137e-001  2.2435397e-001  2.2435397e-001  2.2958368e-001 
 3.3590588e-001 -6.7491598e-002  9.8904222e-002  1.3979238e-003  9.8914102e-002  2.4934348e-001  2.4934348e-001  2.5423548e-001 
 3.0112249e-001 -6.7357786e-002  9.4736613e-002 -2.0805726e-005  9.4736613e-002  2.7622586e-001  2.7622586e-001  2.8071338e-001 
 2.6640430e-001 -6.6629127e-002  8.9628614e-002 -1.5055938e-003  8.9641258e-002  3.0559903e-001  3.0559903e-001  3.0961680e-001 
 2.3176068e-001 -6.5223306e-002  8.3700582e-002 -3.0260633e-003  8.3755262e-002  3.3726960e-001  3.3726960e-001  3.4077707e-001 
 1.9721183e-001 -6.3038751e-002  7.6268554e-002 -4.4889529e-003  7.6400541e-002  3.7389171e-001  3.7389171e-001  3.7681022e-001 
 1.6278517e-001 -5.9974156e-002  6.8713062e-002 -5.8134953e-003  6.8958551e-002  4.0909761e-001  4.0909761e-001  4.1147524e-001 
 1.2852991e-001 -5.5828124e-002  5.6772169e-002 -6.7322683e-003  5.7169944e-002  4.6481988e-001  4.6481988e-001  4.6645409e-001 
 9.4533026e-002 -5.0243869e-002  5.1410168e-002 -8.6686295e-003  5.2135885e-002  4.6844622e-001  4.6844622e-001  4.6980530e-001 
 6.0973085e-002 -4.2665523e-002  1.8281939e-002 -1.9605092e-003  1.8386759e-002  6.3860255e-001  6.3860255e-001  6.3877159e-001 
 2.8424811e-002 -3.1770617e-002 -2.8118496e-003  2.6168946e-002  2.6319578e-002  3.9840287e-001  3.9840287e-001  3.9874923e-001 
 1.7965351e-003 -1.2619819e-002 -2.5635225e-001  3.4600270e-001  4.3062088e-001  9.1514707e-001  9.1514707e-001  1.0078642e+000 
 1.7965351e-003  1.2631910e-002  2.2045682e-001  3.0734107e-001  3.7823239e-001 -1.2585837e+000 -1.2585837e+000 -1.1870538e+000 
 2.8424807e-002  3.1770613e-002  4.5540173e-002  3.8737085e-002  5.9786864e-002 -4.8611051e-001 -4.8611051e-001 -4.8432326e-001 
 6.0973078e-002  4.2665519e-002  9.6844416e-003  4.8196753e-003  1.0817471e-002 -4.6046394e-001 -4.6046394e-001 -4.6040544e-001 
 9.4533026e-002  5.0243866e-002 -5.0632292e-003 -5.1875255e-004  5.0897342e-003 -3.7120542e-001 -3.7120542e-001 -3.7119246e-001 
 1.2852991e-001  5.5828121e-002 -7.3287464e-003 -7.5155019e-004  7.3671807e-003 -3.4979320e-001 -3.4979320e-001 -3.4976605e-001 
 1.6278517e-001  5.9974156e-002 -1.0574089e-002 -8.3844730e-004  1.0607279e-002 -3.2461375e-001 -3.2461375e-001 -3.2455748e-001 
 1.9721183e-001  6.3038751e-002 -1.2136543e-002 -7.1594195e-004  1.2157641e-002 -3.0796936e-001 -3.0796936e-001 -3.0789545e-001 
 2.3176068e-001  6.5223306e-002 -1.3228413e-002 -5.0289353e-004  1.3237968e-002 -2.9542854e-001 -2.9542854e-001 -2.9534093e-001 
 2.6640430e-001  6.6629127e-002 -1.3830351e-002 -2.8365734e-004  1.3833259e-002 -2.8542668e-001 -2.8542668e-001 -2.8533101e-001 
 3.0112249e-001  6.7357786e-002 -1.4045190e-002 -6.9227208e-005  1.4045360e-002 -2.7781269e-001 -2.7781269e-001 -2.7771404e-001 
 3.3590585e-001  6.7491598e-002 -1.4020015e-002  1.2003184e-004  1.4020530e-002 -2.7158284e-001 -2.7158284e-001 -2.7148455e-001 
 3.7070590e-001  6.7094639e-002 -1.3769786e-002  2.8267677e-004  1.3772687e-002 -2.6661527e-001 -2.6661527e-001 -2.6652044e-001 